# t (s)	mx ()	my ()	mz ()	B_excit (T)	mx01 (T)	my01 (T)	mz01 (T)	mx02 (T)	mx03 (T)	mx04 (T)	mx05 (T)	mx06 (T)	mx07 (T)	mx08 (T)	mx09 (T)	mx10 (T)	mx11 (T)	mx12 (T)	mx13 (T)	mx14 (T)	mx15 (T)	mx16 (T)	mx17 (T)	mx18 (T)	mx19 (T)	mx20 (T)	mx21 (T)	mx22 (T)	mx23 (T)	mx24 (T)	mx25 (T)	mx26 (T)	mx27 (T)	mx28 (T)	mx29 (T)	mx30 (T)	mx31 (T)	mx32 (T)	mx33 (T)	mx34 (T)	mx35 (T)	mx36 (T)	mx37 (T)	mx38 (T)	mx39 (T)	mx40 (T)	mx41 (T)	mx42 (T)	mx43 (T)	mx44 (T)	mx45 (T)	mx46 (T)	mx47 (T)	mx48 (T)	mx49 (T)	mx50 (T)	mx51 (T)	mx52 (T)	mx53 (T)	mx54 (T)	mx55 (T)	mx56 (T)	mx57 (T)	mx58 (T)	mx59 (T)	mx60 (T)	mx61 (T)
0	0.098673984	0.95773745	-6.687362e-11	0	0.10134351	0.9573538	-5.2620765e-11	0.101876795	0.10231403	0.102676764	0.10298009	0.10323604	0.1034531	0.10363989	0.10379849	0.10393484	0.104052596	0.10415435	0.10424252	0.104318924	0.10438507	0.10444229	0.104492016	0.10453425	0.10457019	0.10460045	0.104625516	0.104645796	0.10466151	0.10467295	0.10468046	0.1046841	0.10468355	0.104678765	0.104670316	0.1046576	0.10464081	0.10461924	0.104592815	0.10456105	0.10452313	0.104479015	0.10442761	0.104368135	0.104299344	0.10421992	0.10412828	0.10402245	0.103899956	0.103756584	0.10359114	0.103397824	0.103171065	0.102903195	0.10258516	0.102203965	0.101743214	0.1011794	0.10047364	0.09959222	0.098460756	0.096980736	0.09499891	0.09229348	0.08852458	0.08320552	0.075530946
1.5806150097068083e-11	0.09870449	0.9577353	1.8360275e-05	0.00092902005	0.10135807	0.95735306	8.578528e-06	0.101882435	0.10231692	0.10267846	0.10298123	0.10323677	0.103453636	0.103640266	0.10379878	0.10393507	0.10405277	0.104154505	0.10424262	0.10431903	0.10438515	0.10444234	0.10449208	0.104534306	0.104570225	0.1046005	0.104625545	0.104645826	0.10466153	0.10467297	0.10468047	0.10468411	0.104683556	0.10467877	0.104670316	0.10465761	0.10464082	0.10461925	0.10459282	0.104561076	0.10452313	0.10447901	0.10442762	0.10436814	0.104299344	0.104219936	0.104128264	0.10402245	0.103899956	0.10375657	0.10359113	0.103397824	0.10317105	0.102903195	0.10258516	0.10220395	0.101743214	0.101179376	0.10047363	0.09959221	0.09846074	0.09698069	0.094998874	0.09229343	0.08852451	0.08320543	0.07553087
2.034928061635789e-11	0.09873503	0.9577333	2.7205639e-05	0.000999334	0.1013843	0.95735204	2.2262047e-05	0.10189282	0.10232233	0.10268168	0.10298334	0.10323822	0.10345466	0.10364103	0.10379935	0.10393552	0.10405313	0.10415479	0.10424286	0.104319215	0.10438531	0.104442485	0.10449219	0.1045344	0.10457032	0.104600556	0.10462562	0.10464588	0.10466158	0.104673006	0.1046805	0.10468413	0.10468359	0.1046788	0.10467035	0.104657635	0.10464084	0.10461927	0.104592845	0.10456109	0.10452314	0.10447903	0.10442763	0.10436815	0.10429935	0.104219936	0.10412828	0.10402246	0.10389997	0.103756584	0.10359114	0.103397824	0.103171065	0.10290319	0.10258516	0.10220395	0.101743214	0.101179376	0.10047363	0.099592194	0.09846074	0.09698068	0.09499885	0.092293404	0.088524476	0.08320539	0.07553082
3.2805732906887445e-11	0.098870195	0.95772433	4.2701566e-05	0.00061949453	0.101644024	0.95734257	0.00011798244	0.10199838	0.10237817	0.102715366	0.10300533	0.103253424	0.10346561	0.10364915	0.103805535	0.10394035	0.10405695	0.10415788	0.10424538	0.104321286	0.10438707	0.104443945	0.10449343	0.10453547	0.10457123	0.10460137	0.10462631	0.10464651	0.104662105	0.10467349	0.1046809	0.104684524	0.10468392	0.104679085	0.104670644	0.1046579	0.10464105	0.10461949	0.10459303	0.10456125	0.1045233	0.104479164	0.10442778	0.10436826	0.10429947	0.104220055	0.104128376	0.10402255	0.10390006	0.10375665	0.103591196	0.10339788	0.1031711	0.10290325	0.102585204	0.10220398	0.101743236	0.1011794	0.10047363	0.0995922	0.09846073	0.096980646	0.0949988	0.09229332	0.08852436	0.083205245	0.0755307
4.2528419074817923e-11	0.09898698	0.95771766	3.4509027e-05	-6.492889e-05	0.102188766	0.95732373	0.00024681687	0.102228664	0.10250186	0.10279057	0.10305481	0.103287764	0.103490405	0.10366755	0.10381958	0.1039513	0.10406564	0.10416489	0.10425113	0.104325995	0.10439101	0.10444728	0.10449625	0.10453791	0.10457332	0.10460318	0.10462791	0.10464791	0.10466329	0.10467465	0.104681805	0.10468535	0.104684636	0.10467974	0.10467134	0.104658484	0.104641564	0.10461998	0.104593456	0.10456165	0.104523666	0.10447951	0.10442809	0.10436856	0.104299724	0.10422029	0.1041286	0.10402277	0.10390025	0.10375682	0.103591375	0.10339803	0.10317126	0.10290339	0.10258533	0.1022041	0.10174333	0.10117948	0.1004737	0.09959226	0.09846078	0.09698068	0.0949988	0.092293285	0.08852429	0.08320516	0.07553065
5.164071114994598e-11	0.099049665	0.95771605	8.508552e-06	-0.00068311923	0.10302266	0.9572949	0.00035495078	0.10260384	0.10270756	0.102917	0.10313858	0.10334612	0.10353267	0.10369902	0.10384364	0.10397009	0.10408055	0.104176894	0.10426093	0.104334116	0.104397774	0.10445298	0.10450109	0.10454203	0.10457693	0.1046063	0.10463063	0.10465027	0.10466538	0.10467663	0.104683354	0.10468673	0.10468588	0.10468088	0.104672484	0.10465945	0.10464246	0.10462081	0.104594216	0.10456235	0.10452431	0.104480095	0.104428634	0.104369044	0.10430019	0.10422072	0.104128994	0.104023136	0.10390059	0.10375714	0.10359166	0.10339831	0.103171505	0.10290364	0.10258554	0.1022043	0.101743534	0.10117965	0.10047386	0.09959238	0.098460875	0.09698075	0.09499884	0.09229331	0.08852427	0.08320513	0.07553063
6.04170688651419e-11	0.09902901	0.9577198	-2.614246e-05	-0.0009876931	0.10396437	0.9572608	0.00036069503	0.10307938	0.10297823	0.10308641	0.103252016	0.103425734	0.10359062	0.1037423	0.10387682	0.10399602	0.104101166	0.104193516	0.104274504	0.104345344	0.104407154	0.10446088	0.10450779	0.10454776	0.104581885	0.104610614	0.10463436	0.104653515	0.10466833	0.10467921	0.10468568	0.104688585	0.104687534	0.10468256	0.104673974	0.10466083	0.10464367	0.104621924	0.10459525	0.10456332	0.10452516	0.10448087	0.10442937	0.10436974	0.10430081	0.10422131	0.10412955	0.104023635	0.10390104	0.10375757	0.10359206	0.103398696	0.10317185	0.10290398	0.102585845	0.10220458	0.1017438	0.1011799	0.10047407	0.09959259	0.09846105	0.09698089	0.09499893	0.09229336	0.08852429	0.08320515	0.07553064
7.166929252515134e-11	0.09887289	0.95773005	-6.519216e-05	-0.000770387	0.1047492	0.95722675	9.756394e-05	0.10365818	0.103342645	0.103325255	0.10341609	0.1035429	0.103676915	0.10380726	0.10392688	0.104035296	0.10413244	0.10421879	0.104295164	0.104362406	0.10442139	0.10447286	0.10451798	0.1045565	0.10458936	0.10461708	0.104640044	0.104658514	0.104672804	0.10468293	0.1046894	0.10469146	0.10469012	0.104685225	0.10467617	0.10466291	0.104645506	0.10462359	0.104596816	0.10456474	0.104526445	0.104482085	0.10443046	0.10437074	0.10430174	0.10422218	0.10413035	0.10402439	0.10390174	0.103758216	0.10359268	0.10339924	0.10317238	0.102904476	0.102586314	0.102205016	0.10174418	0.101180255	0.10047441	0.09959288	0.09846129	0.0969811	0.094999075	0.092293434	0.08852433	0.08320516	0.07553065
8.255601192192853e-11	0.09863368	0.9577406	-7.684471e-05	-5.8575108e-05	0.10411763	0.9572314	-0.00046338115	0.10381418	0.10353603	0.1034797	0.103532895	0.10363114	0.103744335	0.10385934	0.10396772	0.104067735	0.10415849	0.10423994	0.10431252	0.10437678	0.10443339	0.10448297	0.10452652	0.10456378	0.10459565	0.10462253	0.10464475	0.10466267	0.10467637	0.104686104	0.1046923	0.10469423	0.1046925	0.1046874	0.10467791	0.104664624	0.104646996	0.10462494	0.10459804	0.10456586	0.104527466	0.10448303	0.10443134	0.104371555	0.1043025	0.10422287	0.10413098	0.10402496	0.10390229	0.103758715	0.10359314	0.10339968	0.10317279	0.10290485	0.10258666	0.10220533	0.10174448	0.101180516	0.10047465	0.09959309	0.09846147	0.09698121	0.09499916	0.09229346	0.08852432	0.08320508	0.07553049
9.053411895020493e-11	0.09846173	0.95774573	-6.364225e-05	0.0005166438	0.10239421	0.95726776	-0.0009377938	0.103434846	0.10345138	0.103471376	0.10354573	0.10364887	0.103761725	0.10387482	0.10398095	0.10407885	0.10416777	0.104247674	0.10431895	0.10438215	0.10443789	0.10448677	0.10452972	0.10456652	0.10459797	0.10462455	0.104646504	0.10466416	0.10467768	0.10468726	0.104693286	0.104695216	0.10469341	0.1046881	0.10467851	0.104665175	0.10464748	0.10462538	0.10459845	0.104566224	0.10452779	0.10448332	0.104431614	0.10437181	0.10430273	0.10422308	0.10413117	0.10402513	0.10390245	0.103758864	0.10359328	0.1033998	0.10317289	0.10290495	0.102586746	0.10220541	0.10174455	0.101180576	0.10047468	0.09959311	0.09846149	0.09698119	0.0949991	0.092293374	0.08852417	0.08320487	0.075530246
1.009944662657696e-10	0.09831624	0.95774657	-2.4565572e-05	0.00097153295	0.09878826	0.957343	-0.0013109654	0.10214815	0.10293436	0.10323053	0.10342033	0.10357836	0.1037197	0.10384863	0.10396387	0.10406722	0.10415955	0.10424161	0.104314364	0.10437853	0.10443497	0.10448433	0.10452766	0.104564756	0.10459643	0.104623154	0.10464525	0.104663044	0.104676686	0.10468632	0.10469245	0.10469414	0.104692385	0.10468739	0.104677945	0.10466458	0.10464696	0.10462488	0.10459798	0.10456579	0.10452739	0.10448295	0.10443125	0.10437147	0.1043024	0.10422278	0.10413089	0.10402487	0.103902206	0.10375862	0.10359304	0.103399575	0.10317268	0.10290474	0.10258654	0.10220521	0.10174435	0.10118037	0.10047448	0.09959291	0.09846126	0.09698095	0.09499883	0.09229306	0.08852378	0.083204396	0.07552974
1.1133343695708956e-10	0.09830812	0.95773953	2.0942152e-05	0.00085752265	0.09511852	0.9574198	-0.0010312385	0.10017211	0.101973094	0.10271661	0.10311908	0.10338931	0.103594385	0.10376227	0.10390196	0.10402143	0.10412478	0.10421455	0.10429285	0.10436113	0.10442066	0.10447241	0.10451763	0.10455617	0.104589	0.10461673	0.104639634	0.10465806	0.104672275	0.10468256	0.10468863	0.104691125	0.10468976	0.104684524	0.104675695	0.104662366	0.104645	0.104623094	0.10459631	0.10456424	0.10452599	0.10448164	0.104430035	0.10437032	0.10430135	0.104221776	0.10412997	0.10402402	0.103901386	0.10375786	0.10359233	0.103398904	0.103172034	0.10290412	0.10258595	0.10220464	0.1017438	0.10117986	0.100473985	0.09959242	0.098460756	0.09698045	0.094998315	0.0922925	0.088523164	0.083203696	0.075529054
1.2157494567155204e-10	0.09842339	0.957729	5.2207924e-05	0.0002553822	0.09356842	0.9574762	-4.9882956e-06	0.09816435	0.10077625	0.1020127	0.10268187	0.10310328	0.1033989	0.10362419	0.103801176	0.1039459	0.10406685	0.104169235	0.10425675	0.10433189	0.104396656	0.10445244	0.10450083	0.104541875	0.10457676	0.10460613	0.1046304	0.104650006	0.10466515	0.104676045	0.10468322	0.10468642	0.10468556	0.104680575	0.10467184	0.104658976	0.10464197	0.10462027	0.10459371	0.10456185	0.104523815	0.104479596	0.10442817	0.10436859	0.10429972	0.10422029	0.10412856	0.10402268	0.10390016	0.1037567	0.10359124	0.10339787	0.10317107	0.10290318	0.1025851	0.10220384	0.10174302	0.101179115	0.10047327	0.09959171	0.09846008	0.0969798	0.09499764	0.09229178	0.08852237	0.0832029	0.07552832
1.317112208102011e-10	0.09859668	0.95772165	5.7408462e-05	-0.00048469473	0.09573919	0.9574844	0.001358746	0.097089045	0.09973776	0.10130129	0.10220594	0.10277788	0.10316991	0.103459306	0.103679225	0.10385375	0.1039959	0.10411359	0.10421243	0.10429607	0.1043673	0.1044281	0.10448047	0.104524665	0.104562044	0.10459345	0.10461942	0.10464039	0.10465663	0.104668826	0.10467633	0.10468007	0.10467976	0.104675956	0.104667485	0.104655184	0.104638405	0.10461702	0.104590766	0.10455913	0.10452132	0.10447733	0.10442604	0.10436663	0.10429791	0.104218595	0.104127	0.10402123	0.10389878	0.103755414	0.10359005	0.10339676	0.10317001	0.102902174	0.102584146	0.102202944	0.10174219	0.1011783	0.1004725	0.09959097	0.09845935	0.096979104	0.09499693	0.09229105	0.0885216	0.08320214	0.07552768
1.4173750916054927e-10	0.09874857	0.9577215	3.8705926e-05	-0.0009526935	0.101338215	0.9574031	0.0022841005	0.097793534	0.099322736	0.100821376	0.10182464	0.10249356	0.102959394	0.10330262	0.103560925	0.103763185	0.10392565	0.10405833	0.10416841	0.10426056	0.104338326	0.104404174	0.10446055	0.1045079	0.104547806	0.10458129	0.10460891	0.1046312	0.104648836	0.10466154	0.104670405	0.10467502	0.10467524	0.10467131	0.1046637	0.104651585	0.10463517	0.1046141	0.104588106	0.10455672	0.10451908	0.10447525	0.104424156	0.10436491	0.104296304	0.10421712	0.10412562	0.104019955	0.10389759	0.1037543	0.103589006	0.10339578	0.10316909	0.10290134	0.10258335	0.10220218	0.10174148	0.10117764	0.10047185	0.099590346	0.09845875	0.0969785	0.09499633	0.092290424	0.08852099	0.083201565	0.07552725
1.517041224415675e-10	0.098825485	0.957728	9.297032e-06	-0.000903621	0.10792718	0.9572399	0.0020865058	0.10051696	0.09989344	0.10079804	0.10167217	0.10233349	0.10282119	0.103190444	0.103471614	0.10369255	0.10386971	0.104013845	0.104132764	0.10423178	0.10431489	0.10438494	0.10444466	0.10449461	0.10453665	0.104571804	0.10460074	0.10462437	0.10464259	0.10465654	0.1046659	0.1046709	0.104671806	0.10466818	0.10466088	0.104649015	0.10463291	0.10461209	0.10458627	0.10455506	0.104517564	0.104473874	0.10442288	0.104363725	0.10429524	0.10421612	0.104124725	0.10401911	0.10389681	0.10375358	0.10358833	0.10339517	0.10316851	0.10290079	0.10258284	0.1022017	0.10174103	0.10117724	0.10047145	0.09958997	0.098458394	0.096978135	0.09499597	0.09229008	0.088520646	0.08320127	0.07552707
1.616405524592469e-10	0.098819315	0.9577378	-1.43423285e-05	-0.00036995453	0.111965224	0.957098	0.0006523103	0.1045496	0.10153247	0.10137072	0.10185112	0.102366775	0.10280192	0.10315454	0.10343352	0.1036576	0.10383959	0.10398865	0.10411199	0.10421475	0.10430095	0.10437353	0.10443529	0.1044869	0.10453022	0.104566485	0.10459633	0.10462058	0.104639456	0.10465393	0.104663566	0.104668915	0.104670115	0.10466676	0.10465962	0.10464793	0.104631945	0.104611225	0.10458553	0.1045544	0.10451697	0.10447336	0.10442244	0.104363315	0.10429488	0.10421579	0.10412443	0.10401885	0.10389658	0.10375337	0.10358814	0.10339501	0.103168346	0.10290066	0.10258273	0.102201596	0.10174093	0.10117715	0.10047138	0.09958992	0.09845833	0.09697807	0.09499591	0.09229	0.08852058	0.08320128	0.07552711
1.7155642917552858e-10	0.098764665	0.9577466	-2.1046464e-05	0.00036038388	0.11080333	0.9570999	-0.0013572361	0.108260915	0.103895135	0.10251401	0.1023939	0.10262892	0.10293	0.10321595	0.10346181	0.10366931	0.103843145	0.103988424	0.104110196	0.10421252	0.1042988	0.10437165	0.10443379	0.10448574	0.10452938	0.104565956	0.10459598	0.1046205	0.104639396	0.104653955	0.10466385	0.10466928	0.10467042	0.10466703	0.10466002	0.104648314	0.10463233	0.104611635	0.10458592	0.104554795	0.10451738	0.10447375	0.10442281	0.104363665	0.10429522	0.10421614	0.10412473	0.10401915	0.10389688	0.10375367	0.10358843	0.10339529	0.10316863	0.102900915	0.10258298	0.10220186	0.10174115	0.10117739	0.100471616	0.09959014	0.09845854	0.09697828	0.0949961	0.0922902	0.08852081	0.083201505	0.07552724
1.8144072633477055e-10	0.0987144	0.9577505	-1.05350255e-05	0.00089744275	0.10451766	0.9572341	-0.0028089124	0.10970332	0.10620209	0.10398713	0.10323052	0.103103384	0.103205666	0.10337944	0.10356172	0.10373209	0.10388373	0.10401554	0.10412904	0.10422613	0.10430903	0.10437967	0.10444026	0.104491115	0.10453407	0.10456996	0.10459961	0.104623586	0.10464255	0.10465634	0.10466603	0.104671374	0.10467218	0.10466903	0.10466171	0.104650036	0.10463388	0.104613066	0.10458728	0.104556076	0.104518555	0.10447485	0.104423836	0.104364656	0.10429616	0.104217	0.10412556	0.104019925	0.10389762	0.10375439	0.103589095	0.1033959	0.103169225	0.102901496	0.10258353	0.10220239	0.10174167	0.101177864	0.10047209	0.0995906	0.09845899	0.0969787	0.09499652	0.09229062	0.088521205	0.08320181	0.07552743
1.9117403581345506e-10	0.09870666	0.95774716	6.9892612e-06	0.0009618759	0.09630082	0.95739555	-0.0027998553	0.1076932	0.1074552	0.105342686	0.10417043	0.10370632	0.10359029	0.10362686	0.103724375	0.10384135	0.103958786	0.104068436	0.1041673	0.104254566	0.10433074	0.10439666	0.10445391	0.10450227	0.104543336	0.1045779	0.10460635	0.10462962	0.10464753	0.1046613	0.10467027	0.10467477	0.10467564	0.10467229	0.104664385	0.1046526	0.10463625	0.10461521	0.10458924	0.10455788	0.10452028	0.10447644	0.10442531	0.10436605	0.10429745	0.10421822	0.10412671	0.104021	0.10389863	0.10375534	0.10359	0.103396736	0.10317002	0.102902256	0.10258426	0.10220306	0.101742335	0.10117849	0.100472696	0.09959116	0.09845954	0.09697923	0.09499704	0.092291124	0.08852165	0.0832021	0.07552755
2.0079692029774273e-10	0.098742284	0.95773864	1.8065539e-05	0.00053814286	0.09046942	0.95751816	-0.0012788402	0.10267362	0.106917344	0.10609097	0.1049617	0.10431023	0.10401754	0.10392271	0.10393006	0.10398567	0.104061425	0.10414268	0.10422197	0.10429565	0.10436224	0.10442131	0.10447343	0.10451818	0.10455644	0.10458884	0.10461565	0.10463746	0.10465462	0.104667075	0.104675464	0.1046799	0.10467997	0.104675755	0.10466795	0.10465558	0.10463906	0.10461779	0.10459159	0.10456001	0.10452228	0.104478285	0.10442702	0.104367614	0.1042989	0.10421958	0.104127966	0.1040222	0.10389973	0.103756376	0.103590965	0.103397675	0.103170894	0.10290309	0.10258505	0.102203794	0.10174304	0.10117916	0.10047331	0.09959177	0.098460115	0.09697977	0.09499754	0.092291586	0.088522024	0.08320231	0.07552757
2.103493587005624e-10	0.098789014	0.95773005	1.3611493e-05	-0.00015142006	0.0901029	0.95758724	0.0009626387	0.09667247	0.10444081	0.10583597	0.10533707	0.10475948	0.10439815	0.1042155	0.10414834	0.10414673	0.104180194	0.10423088	0.10428814	0.10434593	0.10440102	0.104451664	0.1044975	0.104537606	0.10457231	0.10460195	0.10462667	0.10464675	0.10466256	0.10467404	0.104681626	0.10468466	0.10468415	0.104680076	0.104671605	0.1046589	0.10464198	0.104620464	0.10459404	0.10456227	0.1045243	0.104480155	0.10442875	0.104369216	0.10430038	0.10422096	0.10412923	0.10402337	0.103900835	0.10375739	0.103591934	0.10339856	0.103171766	0.10290391	0.10258578	0.102204494	0.1017437	0.10117978	0.10047389	0.09959233	0.09846064	0.09698026	0.094997995	0.09229195	0.08852226	0.0832024	0.07552755
2.222017215453005e-10	0.09879449	0.95772624	-1.29488835e-05	-0.0008652515	0.09734833	0.95752984	0.0029697046	0.0920787	0.09970205	0.1039399	0.10491509	0.10487091	0.10465443	0.10447898	0.10437629	0.10433118	0.1043251	0.10434335	0.10437513	0.10441346	0.10445374	0.10449322	0.10453055	0.10456418	0.10459393	0.10461972	0.10464145	0.10465919	0.104672976	0.1046831	0.10468905	0.104691826	0.10469053	0.1046852	0.10467593	0.104663	0.104645535	0.10462366	0.10459692	0.10456487	0.10452662	0.104482286	0.10443069	0.10437098	0.10430199	0.10422245	0.10413064	0.104024656	0.10390202	0.10375849	0.10359296	0.10339953	0.10317265	0.10290474	0.10258654	0.102205224	0.10174437	0.10118039	0.10047447	0.09959285	0.09846114	0.09698072	0.09499836	0.092292204	0.08852238	0.08320236	0.075527504
2.316326115776333e-10	0.09872142	0.95772964	-3.8999908e-05	-0.0009827651	0.105640754	0.95733106	0.0029062158	0.09320973	0.09631892	0.10153581	0.10381496	0.104478054	0.104576744	0.10452841	0.10446686	0.10442673	0.10441159	0.10441656	0.10443516	0.104461886	0.104492575	0.10452432	0.1045555	0.10458432	0.10461036	0.10463313	0.104652524	0.10466841	0.10468073	0.10468946	0.10469473	0.10469621	0.104694344	0.10468849	0.10467909	0.1046656	0.10464796	0.10462574	0.10459875	0.10456651	0.10452811	0.10448362	0.104431905	0.10437207	0.10430299	0.10422334	0.10413145	0.10402541	0.10390269	0.1037591	0.10359353	0.103400044	0.103173114	0.10290517	0.10258695	0.10220559	0.10174472	0.101180695	0.10047476	0.0995931	0.09846134	0.09698088	0.09499847	0.092292234	0.088522315	0.08320231	0.075527474
2.4102043070849525e-10	0.09858788	0.95773613	-5.4419565e-05	-0.00062649144	0.11157197	0.9570996	0.0013501309	0.09854367	0.09497941	0.099114016	0.10223758	0.10365911	0.104199015	0.10438136	0.10443119	0.10444152	0.10444624	0.104456104	0.10447285	0.10449513	0.104520775	0.104547754	0.10457473	0.10460007	0.10462319	0.10464367	0.104661144	0.10467552	0.10468662	0.1046944	0.10469895	0.104699545	0.1046971	0.1046909	0.10468128	0.10466734	0.10464951	0.10462706	0.10459991	0.104567505	0.10452897	0.10448438	0.10443257	0.104372665	0.104303494	0.1042238	0.10413184	0.10402575	0.103903	0.103759356	0.10359376	0.10340025	0.10317329	0.10290534	0.10258708	0.102205716	0.10174481	0.10118078	0.1004748	0.099593125	0.098461345	0.09698084	0.0949984	0.0922921	0.08852219	0.08320221	0.07552744
2.5035751356459234e-10	0.0984387	0.9577428	-4.9201422e-05	2.6952623e-05	0.1121755	0.95700085	-0.0008715858	0.10566772	0.09656654	0.09758167	0.10059383	0.102553144	0.1035493	0.10402589	0.10424649	0.10435266	0.10440936	0.10444609	0.1044759	0.104503736	0.104531065	0.10455788	0.10458386	0.10460791	0.10462979	0.104649104	0.10466562	0.104679085	0.10468949	0.10469669	0.104700744	0.104701	0.1046983	0.104691796	0.1046819	0.104667835	0.10464987	0.104627326	0.10460008	0.10456761	0.104529016	0.10448436	0.104432516	0.104372576	0.10430342	0.10422368	0.10413171	0.10402562	0.103902884	0.103759214	0.1035936	0.1034001	0.10317314	0.102905154	0.10258692	0.10220552	0.10174461	0.101180576	0.1004746	0.09959292	0.098461114	0.09698059	0.09499812	0.09229184	0.08852198	0.083202116	0.07552738
2.619864520863098e-10	0.09832164	0.95774645	-1.3060505e-05	0.0007856569	0.10541665	0.9571231	-0.0028754738	0.11181612	0.10203646	0.0980011	0.09924805	0.10116915	0.102527715	0.103350334	0.1038189	0.104088716	0.10424916	0.10434973	0.10441826	0.104469195	0.1045102	0.10454501	0.10457571	0.104602434	0.104625866	0.10464606	0.10466307	0.10467687	0.10468744	0.10469473	0.10469866	0.104699604	0.10469685	0.10469038	0.1046801	0.10466636	0.10464828	0.10462582	0.10459865	0.10456627	0.10452773	0.10448312	0.10443132	0.10437145	0.104302354	0.10422266	0.10413072	0.104024656	0.10390198	0.10375837	0.10359277	0.103399314	0.10317239	0.102904424	0.10258621	0.10220484	0.101743944	0.10117994	0.100473985	0.0995923	0.09846049	0.09697998	0.09499756	0.09229138	0.08852167	0.083201945	0.07552726
2.7129015739200276e-10	0.098339766	0.9577431	2.7767437e-05	0.0009994069	0.097350486	0.9573035	-0.0029108536	0.11139615	0.10713136	0.10039365	0.09931099	0.100468144	0.10177337	0.102743216	0.10337635	0.10378023	0.10403868	0.10420709	0.10432137	0.10440267	0.10446377	0.10451186	0.10455145	0.10458416	0.10461167	0.10463474	0.1046538	0.10466909	0.10468079	0.10468896	0.10469384	0.10469466	0.10469229	0.10468651	0.10467694	0.10466326	0.10464545	0.10462325	0.10459628	0.104564056	0.10452565	0.104481205	0.104429536	0.10436978	0.10430078	0.10422117	0.10412933	0.10402336	0.10390074	0.103757225	0.10359166	0.103398256	0.10317139	0.10290345	0.102585316	0.10220402	0.101743124	0.101179175	0.10047323	0.09959159	0.09845982	0.096979365	0.09499701	0.092290975	0.0885214	0.08320177	0.075527094
2.8056040248363014e-10	0.09846584	0.9577345	6.21863e-05	0.00074290024	0.091221526	0.9574625	-0.0015279234	0.106122606	0.11034979	0.103923656	0.10060023	0.10046035	0.101324864	0.10223574	0.1029395	0.103440285	0.10378632	0.10402385	0.10418935	0.10430728	0.10439426	0.104460455	0.10451286	0.10455456	0.10458849	0.10461623	0.10463875	0.104656644	0.10467029	0.10468006	0.104686044	0.104688354	0.1046868	0.10468137	0.10467212	0.10465897	0.10464165	0.10461976	0.10459307	0.104561105	0.10452298	0.10447871	0.1044272	0.10436766	0.104298785	0.104219325	0.10412762	0.10402175	0.10389924	0.10375582	0.10359035	0.103397	0.10317022	0.102902345	0.102584265	0.10220301	0.10174221	0.1011783	0.10047241	0.099590816	0.09845912	0.09697874	0.09499652	0.09229062	0.08852119	0.08320162	0.075526915
2.9207666320695323e-10	0.0987142	0.9577223	7.584816e-05	-3.0908086e-05	0.09049367	0.9575868	0.0010706555	0.09682613	0.10932394	0.10794174	0.10351205	0.101610094	0.10147788	0.10197677	0.102568984	0.10308315	0.103484966	0.10378488	0.104005605	0.10416794	0.10428889	0.104380436	0.104451716	0.10450718	0.10455127	0.10458659	0.10461479	0.104637004	0.10465405	0.10466622	0.104674436	0.10467841	0.1046781	0.10467357	0.104665555	0.10465305	0.104636334	0.104614995	0.10458877	0.10455717	0.10451944	0.10447548	0.10442429	0.10436492	0.10429626	0.10421701	0.10412548	0.10401976	0.103897385	0.10375408	0.103588745	0.10339551	0.103168815	0.102901034	0.10258305	0.102201864	0.10174115	0.10117732	0.10047149	0.09958998	0.09845837	0.09697815	0.094996095	0.09229039	0.088521056	0.08320155	0.07552685
3.0125056750812014e-10	0.09890464	0.9577171	5.788308e-05	-0.000661344	0.09567083	0.95757	0.0026546724	0.09175269	0.10463489	0.109171614	0.10603357	0.10328222	0.102250524	0.10220485	0.10253539	0.10294606	0.10332306	0.10363325	0.10387658	0.10406327	0.10420602	0.10431552	0.10440111	0.10446751	0.10452	0.10456172	0.104594834	0.10462076	0.10464084	0.10465523	0.104664974	0.10467025	0.10467115	0.10466819	0.10466053	0.10464873	0.104632586	0.10461172	0.10458585	0.10455459	0.104517065	0.10447338	0.104422376	0.104363196	0.10429467	0.10421557	0.10412418	0.10401856	0.103896275	0.10375305	0.10358783	0.10339464	0.10316801	0.10290031	0.10258235	0.10220124	0.101740584	0.101176806	0.10047103	0.09958958	0.098458104	0.09697798	0.09499603	0.09229041	0.08852112	0.083201624	0.07552694
3.103924648080324e-10	0.09901849	0.9577181	2.1062386e-05	-0.0009874012	0.10347632	0.95740765	0.003025492	0.091630936	0.09862344	0.107803784	0.107746944	0.105171934	0.103485	0.102844104	0.10280072	0.103008054	0.10328759	0.10355985	0.10379531	0.10398776	0.1041412	0.10426208	0.10435807	0.10443318	0.10449268	0.10454005	0.10457737	0.10460691	0.10462965	0.10464641	0.10465781	0.10466452	0.10466629	0.10466381	0.10465695	0.10464577	0.10463004	0.10460949	0.10458392	0.10455295	0.104515634	0.104472116	0.104421295	0.10436223	0.10429382	0.104214825	0.10412349	0.10401795	0.10389574	0.10375256	0.10358741	0.10339428	0.103167675	0.10290001	0.1025821	0.10220103	0.10174041	0.101176664	0.10047095	0.09958958	0.09845817	0.09697815	0.09499628	0.09229066	0.08852137	0.08320189	0.07552724
3.2175639795437487e-10	0.09900566	0.9577258	-2.9660452e-05	-0.0007661831	0.1115787	0.9571048	0.0016471507	0.0982859	0.093578056	0.10307031	0.10765873	0.10694027	0.105228305	0.10406048	0.10352963	0.103396975	0.10346739	0.103622496	0.10379789	0.10396342	0.10410754	0.1042279	0.104327254	0.104406945	0.104471125	0.10452265	0.104563646	0.104595914	0.10462082	0.10463935	0.1046522	0.1046604	0.1046633	0.10466142	0.10465518	0.10464446	0.10462906	0.10460881	0.10458348	0.10455265	0.1045155	0.10447209	0.104421325	0.104362346	0.10429401	0.10421503	0.10412375	0.104018256	0.10389606	0.1037529	0.10358773	0.10339464	0.103168026	0.10290037	0.1025825	0.10220141	0.1017408	0.10117711	0.100471444	0.09959011	0.09845878	0.096978776	0.094996914	0.09229126	0.08852196	0.08320252	0.07552787
3.308095393153331e-10	0.09888715	0.9577336	-5.5968314e-05	-0.00018914326	0.11331036	0.9569702	-0.00031708734	0.105931535	0.094026804	0.09866958	0.105610766	0.107228026	0.106300004	0.10510484	0.10431233	0.10391708	0.10378732	0.10380767	0.10389872	0.10401455	0.10413075	0.10423635	0.10432838	0.10440488	0.10446801	0.10451948	0.10456117	0.10459407	0.10461954	0.10463874	0.10465238	0.104660705	0.10466358	0.104662284	0.104656056	0.10464545	0.10463017	0.10460998	0.10458467	0.10455386	0.10451669	0.10447327	0.10442247	0.10436346	0.1042951	0.1042161	0.10412475	0.10401923	0.103897	0.103753805	0.10358862	0.103395484	0.10316889	0.10290118	0.10258328	0.102202214	0.10174157	0.101177864	0.10047221	0.0995909	0.09845955	0.09697954	0.094997644	0.0922919	0.08852259	0.083203144	0.07552849
3.4206275061588653e-10	0.09868498	0.95774007	-5.7579633e-05	0.0006116801	0.108410075	0.9570522	-0.0024745662	0.112613454	0.10012183	0.09553046	0.101576485	0.105804384	0.10662956	0.10603988	0.10525992	0.1046774	0.10433501	0.10417843	0.10414002	0.10416799	0.10422712	0.10429685	0.1043665	0.104429595	0.104484715	0.10453122	0.10456996	0.10460118	0.10462558	0.10464396	0.1046568	0.10466463	0.10466794	0.104665935	0.10465988	0.1046489	0.10463344	0.1046131	0.10458766	0.1045567	0.10451939	0.1044758	0.10442489	0.104365766	0.104297295	0.10421817	0.10412673	0.104021095	0.10389878	0.103755526	0.10359023	0.10339701	0.10317034	0.10290261	0.10258467	0.102203526	0.101742834	0.10117911	0.10047344	0.09959209	0.09846066	0.09698056	0.09499853	0.09229277	0.08852341	0.083203994	0.07552922
3.5103356128885453e-10	0.09855232	0.95773953	-3.6293924e-05	0.0009722271	0.10094155	0.95722646	-0.0030653297	0.11274721	0.10673165	0.09645456	0.098607235	0.10353343	0.10586365	0.106187396	0.10575136	0.10521292	0.104794286	0.10453169	0.104396075	0.104347564	0.10435098	0.104382	0.104425214	0.10447069	0.104514025	0.10455284	0.10458616	0.10461371	0.104635715	0.10465246	0.104664125	0.1046709	0.104672946	0.10467098	0.10466406	0.10465298	0.10463707	0.10461642	0.10459073	0.10455954	0.10452205	0.10447826	0.10442718	0.104367934	0.104299344	0.10422008	0.104128495	0.10402277	0.103900366	0.10375702	0.103591636	0.10339834	0.10317161	0.10290386	0.10258579	0.10220461	0.10174389	0.10118009	0.100474395	0.09959297	0.09846147	0.09698126	0.094999135	0.09229333	0.08852401	0.083204545	0.07552967
3.622324322183539e-10	0.0984886	0.9577311	1.7809331e-06	0.0008207096	0.09234502	0.95743173	-0.0019739852	0.10641675	0.11212611	0.101597875	0.0972157	0.1004007	0.10381068	0.1054218	0.10576056	0.1055618	0.105230756	0.10493658	0.10472803	0.10460265	0.10454027	0.10452004	0.104525074	0.10454339	0.104567416	0.1045926	0.10461634	0.1046369	0.104654126	0.10466713	0.104675926	0.10468086	0.104681484	0.10467802	0.104670584	0.10465842	0.104642056	0.10462089	0.10459473	0.10456318	0.10452538	0.10448129	0.104429975	0.10437052	0.104301706	0.10422228	0.104130566	0.104024686	0.10390214	0.10375868	0.1035932	0.1033998	0.103172995	0.102905154	0.10258703	0.10220575	0.101745	0.101181105	0.10047531	0.099593796	0.09846217	0.09698181	0.094999634	0.09229384	0.08852453	0.083205	0.07553